332
Lattice="15.0 0.0 0.0 0.0 15.0 0.0 0.0 0.0 30.0" Properties=species:S:1:pos:R:3:forces:R:3 energy=-252170.86587904292 pbc="F F F"
H        0.00076800      11.87858700      21.03306300       0.26221600      -0.52996800       0.14133700
H        8.79502600       5.49960700       8.42992700       0.47913100       1.02993200       0.29033900
H       12.28452300      10.49000300      13.83109800       0.74887800      -0.18398700      -0.55699800
H        1.90483900      14.36921500      19.69673300      -1.50847000       1.25654300       0.20066400
H       10.10205400       9.40679200      11.62209000       0.50226100      -0.01535800      -0.38638600
H       11.72916600       8.25654900      16.66299300       0.37184600      -0.68721800      -0.43790900
H        4.82517800       2.92921300       6.71938300       0.08411000       0.24837100       0.32290700
H       13.24862900      12.18320800      11.43599000      -0.60849900       0.20912000      -0.00724000
H        4.27364000       5.34204600      21.18624500      -0.14556000       0.46577200       0.05615200
H        6.89225600       9.16481900      20.55616300       0.26415200       0.88319300       0.62988900
H        1.87709400       9.93816400      13.60692900      -0.39892500      -0.99354700       0.40794500
H        6.52978600       0.16939300      23.69233700      -2.23415400       0.58599500      -0.55181700
H       12.87508700       3.58861300      18.11780400       0.68696600       0.73579300       0.32498200
H        7.66102400       0.48369300      11.28441900       0.55922200      -0.39721700       0.91045300
H        0.62858100       2.67677100       7.17369100       0.27361800      -0.23118100      -0.48084400
H       14.48151500       2.42306300      20.97661800      -0.95246500      -0.24559100       1.06395200
H       11.17127700       2.99934800      20.63890600      -1.07244100       2.96802700       0.20076800
H        9.13944600       4.17865300      20.05231300       0.29566700      -0.41923000      -0.27608100
H        4.73701100       7.25486800      12.17574400       0.41752700       0.02753700      -0.26999900
H       10.88788200      12.18176500      14.85105800       0.46717800       0.31181400       0.33821600
H        7.62295200      11.80419500      22.93906300       0.30297800      -0.22754300      -0.27169500
H        3.84641100      10.00459300       8.83166800      -0.48190600       0.41356200      -0.18356500
H        5.15166200       5.26052700      17.98046600      -0.06735800       0.28067400      -0.39574600
H       11.02935800      11.96682600      21.82997700      -0.23664100      -0.72939000      -0.20228000
H       11.45998500      10.84285300      19.02051500      -0.30096300       0.31079200       0.37255900
H       12.58363500       7.73762400      19.14551000       0.19896600       0.21002900       0.23488900
H       12.90102800       8.50800000      11.70111700       0.08394800       0.16415700       0.19610300
H       10.04485800       0.72839500       7.47613900      -0.18279500      -0.68709800       0.11428500
H        6.75066400       4.08833000      12.69206700       0.95896800       0.89987300      -0.95791800
H       13.53060400       6.22917800      16.04629300       0.08940400      -0.08045400      -0.09153500
H        2.91730900      14.63726800       7.91259100       0.80852100       0.25176700       0.42417300
H        4.68371900       3.73032900      13.78637800      -0.13976400       0.02337800       0.19560900
H       10.31791700      14.50804200      16.78009700      -0.24783000      -0.29207900       0.35060100
H        9.64907000       8.38148100      23.43392500       1.67607800       0.44353000      -1.12006000
H       11.54864900       5.55097700      17.28836500       0.25082200       0.42523300      -0.72943000
H        0.67493500       9.07057300      18.17932700       0.04238000      -0.97148400      -0.07164600
H       13.33948200       0.32608900      10.18899700       0.17211500      -0.14468600      -0.08246400
H        2.30012600       4.27354500      12.02080400      -0.02166200      -1.22043200      -0.63443700
H       10.40229900       2.99132500      12.87027300      -0.22171100      -0.89001400       0.66983400
H        3.27881100       0.86092700      16.74973500       0.87330500      -1.11491300      -0.49397000
H        4.86844800      12.36551600      20.44631600       0.17180700      -0.22982300       0.13028700
H        8.15042800       7.86496500      11.84661300      -0.69024800      -0.81797400      -1.86465900
H       11.72812300       2.35583200      10.47719900       0.12618400      -0.71666700      -0.14302800
H        1.19102200       6.01579300      17.76761400       0.31038500      -1.50989000      -0.70429000
H        3.36693800       8.63601200      20.05034800       0.33821300       0.66220300      -0.43280700
H       14.47471900       0.40951200      19.94652800      -0.00011100       2.45907200      -0.26303500
H        4.50538300      12.89134300      11.85789800       0.46676000       0.17684200       0.48646800
H        6.73977900       8.57264700      24.47035600       0.67620900       0.01852700      -1.00335900
H        9.54643500       9.62691000      16.40283500      -1.62545800      -1.06016400       0.65008700
H       11.87345600       0.94570000      17.92534500      -0.21057500      -0.40648100      -0.56927300
H       14.87747300       7.97959000      13.83057900      -0.20195500      -0.68800800      -0.60596800
H       12.41973400       4.38045100      14.12302300      -0.06089500      -0.56319000      -0.59955400
H        3.68865400       3.63593700      18.44506800       0.27381700      -1.84800700       0.11992300
H        4.02515300      14.19215700      20.68581500      -2.16988600      -0.22727300      -0.54602600
H        1.74974200       2.22718900      19.72263900      -0.40084400      -0.16150900       0.33662000
H       11.76320300      13.47818100       7.01301000       0.74047900       0.15381900       0.09851800
H        6.84375000       3.83544600      19.00510300       0.63452800      -0.28466900       0.86724000
H        9.90480900       7.78872500      21.12939600       0.31576600       0.23946000       0.39644900
H        4.18132700      11.63105300      14.52143300       0.51173400      -0.65216000       1.69792300
H        2.14819500       2.78673500       5.00902000      -0.12826800       0.28999000      -0.25351000
H        7.66115200       8.64144700      17.94067800       0.39666500       0.11780600      -0.28898200
H       10.05866700       0.68391300      13.51381000       1.13350400      -0.55763500      -0.19789200
H       14.81004300       3.93247600      15.38553900       0.18000000       0.03327500      -0.09381600
H        5.98386200       8.05658200       8.50973100       1.20889500       0.64247500       0.05017200
H        0.78681400       9.03724800      15.34946800       0.81074700      -0.69752000      -0.87878400
H        7.03155400      14.16263500      14.59309200      -1.75688100      -2.07069400      -0.70570800
H       11.04255800      14.43635600      10.20812100      -1.03631400      -0.24705200       0.19086000
H        9.35910400       2.65136700       9.65104600       1.32288400       0.30904400       0.85108400
H       12.94801500      11.01539700       7.46716800       0.45898000      -1.56652500       1.58176500
H        1.71817100       6.61156100       6.86880600      -0.25096400      -0.08782200       1.62507500
H        2.14597200      14.00786600      10.17272900      -0.45874100      -0.38852200       0.11019900
H        4.02257300      14.07024600      18.17306800      -1.07687500      -0.34571700       0.79907100
H        4.01153100       6.91773200      16.53750700       0.11330300       0.08330100       0.69440500
H       14.42316700       0.40472600      12.25041900      -0.07709200       1.10535100       1.03555600
H        9.84458300       2.67740300      15.17150800       0.14883900      -0.12283100       0.93489200
H        4.37098700      10.44701100      17.26279500       0.60454800       1.10885600      -1.93601300
H        7.34927400      12.00771800      11.49877200      -0.14408200       0.29181500      -0.05165000
H       13.66530000       4.71772800      12.37247900       0.34390300      -0.05411400       0.60651100
H       14.71317900      11.08816200      15.72748900       0.01371500      -0.09404000       0.13098000
H       12.64643000       8.32311800      21.68034200       0.62206400       0.90692800      -0.80797900
H        5.38675100       7.64706600      21.60689000      -0.00072500      -0.15950400       0.15108300
H        0.82276600      12.14285200      10.89529700      -0.18363500      -0.40453600       0.25786300
H        6.48808600       8.54413700      14.52658800      -0.38192800      -0.19953400      -0.00855500
H       11.47551800       7.43044500      10.17505600       0.00339200       0.01217300       0.38440100
H        2.10262400       1.82842300      10.28601900       0.83503900      -0.18488700      -0.16223900
H        1.20737900      14.22326200       6.76913000       0.89516500       0.12168900      -0.56595400
H        3.43673700       3.82309300      16.24802600      -0.67480500       0.17092600      -0.98652700
H       13.20282200      12.10285600      17.81739300      -0.77937300       0.38917400       0.33376100
H        6.07445800      12.75565500       8.34832600      -0.33231000      -0.39380100      -0.09017900
H        7.13375000      13.89405600      10.00840800       0.33078900      -0.67549900      -0.58509300
H        0.57823700       5.85490600      21.94244500      -0.10782200      -0.01207000      -0.15012400
H        3.77170300       7.25693000       8.39241000      -0.37935100      -0.14979800      -0.36374900
H        1.87750200      11.38627500       8.60285000       0.15703200      -0.51012600      -0.08207300
H       14.15923400      13.52457800      23.37570800       0.18462700       0.57957700       1.02720900
H        8.48817600       5.61732300      14.38886000       0.34129900      -0.99994600      -2.61378700
H        7.91226700       1.68834400      14.34367700       0.81478500       0.59773500      -0.50910500
H       13.80617600       1.16706800      14.64447200       0.84825900       0.34615800       0.38678900
H        5.85763700       2.66542400      20.84430000       0.46019000       0.14071200      -0.29769200
H        7.91305200      11.21800000      16.91017700      -0.23404200       0.36093900       0.21748000
H        4.34174300       3.04566500      10.07925200       0.06778500      -0.99660500       0.46971000
H        7.17959000       2.37128900      16.75786000       0.55439400      -0.57240100      -0.40974100
H        8.40419900      11.06070300      20.57604500      -0.42029300      -0.35252600       0.02069600
H        5.33670400       9.91325700      11.55850800       0.73141400      -0.91513800       0.25819800
H       14.17807000       2.08106500      16.76306100       0.71587800       0.06739000      -0.87586300
H        4.46637900       4.79813500       8.38557500       0.18715400       1.52138400       0.17320900
H        6.41798000      14.45624500      19.08822100       0.74461500      -0.22054500      -0.75754400
H        5.22548500       6.87852500      14.89689400      -0.07477200       0.20931800      -0.22020500
H        8.98328000      10.39557700      12.24018000       0.02557700      -0.30956900      -0.17500100
H        7.37772500       5.79450000       7.72240000       0.03191800       0.59231700       0.18700400
H        5.39003000       2.54122500       5.29737100       0.22836100       0.25011100      -0.29607900
H        1.97023500      12.73644400      19.76925200       0.17221800       1.37964100      -0.06781600
H       10.74105100      10.09113400      13.47507500       0.55669700       0.35037300       0.11616800
H       11.64205300      12.58309900      11.21492000       0.55284000      -0.12908100      -0.00114100
H        1.81247100      11.30845900      12.85108000      -0.57860300       0.68870700      -0.51997300
H        6.15848200      10.50425200      20.86328200      -0.56134500       0.39322500      -0.06538400
H       11.86153600       9.50581200      15.57543400       0.19836500      -0.28658300      -0.36174100
H        3.12028200       6.42245900      21.08514900       0.03584500       0.03915800       0.01558800
H       14.56013800       3.43178400      19.67302800      -0.11393800      -0.51135200       0.55108300
H       12.11373200       9.98570900      17.94466600      -0.01749100      -0.27312300      -0.81149400
H       12.00060900      12.90117800      15.78758900      -0.97340300      -0.06537200      -0.46415700
H        5.25013100      14.57622000      23.01556600      -0.39433800      -0.80681300      -0.81910500
H        6.37526400       5.60833500      16.95834400      -0.63825300       0.24419400       0.84874600
H       14.33712300       1.94230300       7.73653500      -0.11580400      -0.48090700      -0.09064600
H       10.61492700       1.54858500      20.55952500       0.15228600       0.15003200       0.04604100
H        8.90502900      12.63098500      22.45471300       0.16123500      -0.57487500      -0.28098400
H        9.96587400       5.44258800      20.27721000       0.32287800       0.28879400       0.14270400
H        9.47925900      14.28598500       7.87954500      -0.11010000       0.32907500       0.07005000
H       12.98312700       5.07799300      18.70922800       0.75401400      -0.79384000      -0.26227600
H        7.41923500       5.30221800      11.73188300      -0.20300000       0.26246600      -0.08768900
H        3.46782400       6.69220000      11.61464900      -1.84370300      -1.49450600       0.42208700
H        7.49731700       1.56538900      10.21715900      -0.30881100      -0.07744200      -0.07152300
H        4.13373700      11.13446500       7.80179800       0.06282400       0.26812400       0.09200100
H        9.83512500       0.92736500      17.06298400      -0.23444800       0.31620000       0.10730100
H       12.27239700      11.81349800      22.63659900       1.19241100       0.32928300       0.52646400
H        4.15751000       0.15898500       6.97766600      -0.34379400      -0.10823800       0.36339200
H       10.70678100       9.50928900      22.95104100      -0.01064300       0.28491000      -0.12143400
H       11.11237000       7.22409600      19.12544200      -0.50111500       0.24308100       0.38043000
H        4.64471900       2.82814700      12.50320000       0.19650300       0.04152700      -0.45956400
H       12.52008700       9.54396300      10.55204200       0.25223200       0.44570600      -0.21574000
H       10.49653400       4.95639200      18.19483800      -0.33662400      -0.56868000      -0.46269500
H       14.98440300      10.47006800      18.33148300       1.96398700      -0.87237000      -1.18044600
H       14.27654800       6.85600400      12.73381300       0.42734100       0.23924300       0.28660900
H       12.96040800       6.83691000      14.72735500       0.19082100       0.21004800       0.00417900
H       12.78039100      14.51946800       8.92573500      -0.15629900       1.02045100       0.40749400
H        8.97560800       3.44457500      12.93101800      -0.42010100      -0.72459000       0.42701300
H        2.71113900       1.62548100      17.95453100      -0.06290400      -0.08283700       0.08445400
H       12.83831900       2.92587300      13.56232400       0.06029500      -0.41871300       0.00366800
H       11.15400900       3.74390900      10.63860900      -0.39013500      -0.45542900       0.20339700
H        3.22695000       2.18034300      20.20086200       0.81444400       0.08714200       0.56903200
H        6.89352200       9.07623800      22.93766000       0.16518700       0.11736000      -0.00540600
H        8.08088500       9.32226200      15.74410500      -0.28130500       0.04571900      -0.13768300
H        5.28952900      13.89767900      12.88732100       0.80179100      -0.49486600       0.62729500
H        4.40385000      11.31120000      19.35950800       0.10407200      -0.48060100       0.52444500
H        1.40634400       5.38953600      12.58063400       1.22255400      -0.36368600      -0.24251300
H       13.42760600      13.52490600       6.88104400      -0.86438800      -0.15207300       0.06503100
H        7.01244000       4.67843900      20.35634800      -0.32303900       0.74821100       0.12672500
H       12.52302700       1.65411900      19.05180100       0.59127400      -0.44451900      -0.56650700
H        7.61640800       7.79568000      10.24749000       0.17017600      -0.29419300       0.64770700
H        5.22345000       0.14182700      20.67345800      -0.06564200      -0.57865500       0.49491600
H        3.33203400       4.90120400      19.24022800      -0.17017500       0.34056100      -0.06109600
H        3.79869900       9.60443500      21.27671500       0.70829600       1.65252800      -0.40986500
H       14.38065400      14.09703700      19.35168000      -0.83996100      -2.80173500      -4.86672700
H        8.87304200       7.56950600      19.97847400      -0.88723100       0.37064000      -0.78156100
H        0.80130300       6.57322800      19.23461700       0.39307700      -0.19175600      -1.18532400
H        0.73823800      10.43084800      20.56468700      -0.75610900       2.17224000      -0.14286100
H        5.25657400      10.52183400      14.87778500       0.05708600       0.57829700       0.66295100
H       14.85380200       5.15179300      14.32273100       0.32037300      -0.35887600       0.43010400
H        3.48473700       5.89485700      15.43465800      -0.39610100       1.33693300       0.53216900
H        4.76285200      13.53941600      16.93420400       0.09974200      -0.22092300      -0.31408200
H        0.88160400       6.22365900       8.21713300      -0.09187700       0.13702500       0.00689700
H        2.10093800       8.08936500      15.12803700       0.24819100      -0.54300700       0.25185600
H        2.58900600       1.76397400       6.03426800       0.73645900      -1.30705100       0.64027800
H        6.91508900       9.39684100       8.83075500      -0.29174000      -0.15672000      -0.25027900
H        6.68433500       7.63308200      18.69471700      -0.59157700      -0.69922900      -0.44943800
H        0.46462400       0.85083100      10.99418100      -0.22827700       0.64181200       0.75820800
H       10.72097800      14.35600900      14.26349100       0.37925300       1.02136900      -1.67899200
H       10.36751400      14.26822300      11.59653400      -0.18562500       0.22795100       0.80575300
H       12.90067000      11.37213000       8.91742700       0.47242700      -2.23414500      -0.42048400
H       14.79356900      11.09584700      14.19582800       0.22996100       0.15296400      -0.40065300
H       10.51329700       3.24596400      16.51935000      -0.22419100       0.12619000       0.03726800
H        6.06801200      12.68570200      14.71187500      -0.31713200      -0.40988900       1.41897300
H        8.24217200       3.41980200       8.77349100       0.32695000      -1.37787800       0.54684100
H        3.46721100      14.65094900      10.62569200       0.18121000       0.06936300      -0.14321000
H        7.51927400      12.25079900      13.12108200      -0.16110000       0.12281100      -0.77641000
H        3.02571000       9.77683700      17.64188100      -1.11724200       0.19141500      -0.45571400
H       12.98099400      13.74006300      17.51639900      -0.10812700      -0.52911700       0.47487500
H       10.81048300       6.23897700      10.97425300      -0.07293800       0.30294800       0.03172400
H        0.47440800      13.35317700      11.80565700      -0.00200700      -0.12511600       0.31686300
H        0.86377700       2.54430600       9.62243000       0.04465300      -0.06054000       0.04425800
H        0.30853900      13.55943100       7.82940600       0.14892500       0.27886500      -0.33450300
H        7.15566000       9.74098900      13.74393500      -0.39172400       0.09822400       0.78744600
H        4.45627400       7.04442100       9.77550900       0.54621100      -0.33516700      -0.77497800
H       14.52842700       4.94172400      11.16263300       0.73515000       0.15243100      -0.93753900
H       12.97938100       9.71735500      20.98180900      -0.25053400       0.43402300      -0.01076500
H        2.26203700       4.21722100      15.17289200      -0.12948100      -0.07076100       0.18897600
H        6.42536600       6.75449000      22.44371700      -0.02942600       0.48434100       0.10080600
H       14.01870500      13.91049600      21.84813300       0.23086700      -0.46402200       0.29266800
H       14.71798200       7.04138300      21.30936000      -0.14171600       0.21097500       0.19713000
H        6.37577200       1.69466700      14.40841700      -1.23170600       0.79900100      -0.60376800
H        0.28388700      11.12235700       8.64668500      -1.22455900      -1.24149900      -0.70578400
H        6.71459000      11.47755600      17.83704300      -0.01271800       0.17332100       0.02751600
H        8.56289500      13.30838500      10.00909200      -0.18777200      -0.32693400      -0.35759500
H        5.85050200      12.58501100       6.82998700      -0.31484800      -0.13782500       0.20976700
H        5.06782600       1.73919600      10.72750700       0.51316900      -0.11459300      -0.22779500
H        5.14068300       1.81339900      22.00378300       0.03187300       0.10164900      -1.89713200
H       12.74380000       0.41254700      13.82619600      -0.48790800       0.37185600      -0.42556000
H        9.09332100       5.71483100      15.74150100       2.15302300      -0.38380300       1.75427500
H        8.99477500      11.97497700      19.44227700      -0.38445700       0.31475800      -0.53770000
H        6.17309300       1.85227900      17.87990800       0.51593300       0.04415200      -0.55656100
H        3.89394400      10.31103800      12.07364000      -0.02927200      -0.08455000       0.07544800
H        3.32524300       3.97448100       7.69601900      -0.73698400       0.23761300      -0.18936400
H        0.73707100       2.03935800      16.28530400      -1.24180700       0.04762300      -0.58885600
H        7.68644600      14.10362000      18.11713800      -0.25949100      -0.10219800       0.02107900
H        6.79444200       6.57400900      14.64993200      -0.36871300       0.05357700      -0.00537800
H        8.53332400      14.68172600      21.41467100       0.10229500      -0.05612300       0.15387300
H        8.34635400       0.60116300      20.21154500       0.36137700      -0.15592800       0.25478400
H       13.44090800       5.70366200       9.42913300       0.52400600      -0.19052500      -0.54956000
H       14.24507600       4.72819500       8.43104600      -0.34622000      -1.03660900      -0.63183300
H       13.24106100       2.10412700      23.04229700      -0.26191400       0.42560700       0.48348200
H       12.59778500       1.36827000      21.82082900      -0.45230000       0.33975300      -0.23902900
O        8.01141500       5.11605400       8.01791800      -0.37487300      -1.43874700      -0.35603700
O        2.48394600      13.61929600      19.65116000       1.32804700      -2.68030600      -0.15862000
O        5.04156200       2.17151200       6.12748300       0.17186600      -0.81100000      -0.07232400
O        9.41008200       9.47491600      12.31004500      -0.50459400       0.32398900       0.64961300
O       12.37465100      11.93169700      11.01921500       0.31984400      -0.10575200      -0.20648100
O       11.35634000      10.69274400      14.02171100      -1.24143900      -0.28499500       0.23258300
O       11.49923700       9.17696400      16.42421100      -0.75354500       0.76776900       0.95069200
O        6.82419500       9.89548100      21.28322600       0.46971300      -1.23506700      -0.76823800
O        2.37090400      10.75429100      13.42503400       1.41572000       0.31068400       0.01493300
O        3.38178400       5.51699800      20.78918300      -0.06535600      -0.42635500       0.23932900
O        5.52345600       0.38955100      23.46161000       2.68156900       0.49395800       1.40964200
O       11.44548000       2.11487700      20.51865900       0.62838300      -3.49030300      -0.27764400
O       11.05993500      13.01679600      15.40647000       0.62759400      -0.03442700       0.25859000
O       14.86985500       2.75881100       7.79753400      -0.09051500       0.70774300       0.56231200
O       13.55345500       4.26842300      18.45410300      -1.35240600       0.32206600      -0.01238300
O        0.02738900       2.74024200      20.25126500       1.13173200       0.70416500      -1.58556000
O        5.76482600       5.99785400      17.67023500       0.76470400      -0.29994200      -0.56559300
O        8.03959200      12.69129900      22.90072000      -0.55169600       0.86400000       0.61675600
O       12.32283700      10.71990700      18.57098200       0.30951400       0.14710300       0.51310700
O        6.95524400       0.91907400      10.79026000      -0.28151000       0.45482600      -0.85608600
O        4.17563500       7.27403400      11.35761300       1.31791700       1.23130800       0.21220700
O       10.09634000       4.49010900      20.00936700      -0.70242600       0.20496000       0.16102400
O        3.39208800      10.56572000       8.13849800       0.26769700      -0.69814700       0.23600300
O       10.08970400      14.75229800       7.25959300       0.18757200       0.24669800      -0.17262100
O        9.95926200       0.05427000      17.53462900       0.63125700      -0.16566000      -0.53704400
O        3.18318100      14.97835700       7.02364900      -0.38415300       0.10584600      -0.88748900
O       11.96264800       7.17253200      18.63153900       0.66281700      -0.39694100      -0.53224100
O       10.52159400       8.54120300      22.87173800      -1.82536000      -0.71908000       1.04241100
O       11.52615800      11.26832600      22.34016800      -0.74409100       0.32916000      -0.49095900
O       12.14483700       8.95106300      11.23398800      -0.33476300      -0.56228900       0.02934100
O        7.62865800       4.54971200      12.33227200      -0.58889700      -1.05327100       1.14207700
O       10.77927300       4.94482100      17.22349100      -0.33732700       0.03624200       0.84433500
O       12.64915700       0.38592100       9.46269100       0.09855200      -1.04496600      -0.30881400
O        0.73856500       9.95900800      17.77912000      -1.85117900       1.51455400       1.08320200
O       12.67322200       6.39302800      15.57580900      -0.09066900      -0.11226400      -0.08733300
O        5.27391000       3.24746900      13.15288000       0.10729200       0.02936500       0.70470800
O        9.55334200       2.70998700      13.36067100       0.34488000       1.47306300      -1.01031100
O        2.68760900       1.58845200      16.95525200      -0.94292800       1.32915200       0.18373000
O       10.89426900       2.78134900      10.77796900       0.47111700       1.25154000      -0.29383500
O        2.38537200       5.15039700      12.40635100      -0.97501200       1.56242300       0.67457600
O        4.63089200      13.83253700      12.16928900      -1.43410900       0.13440100      -1.28540400
O        7.33065600       8.52057400      23.64773100      -0.56233700      -0.15622200       1.08212300
O       14.05683100       7.63279800      13.32894000      -0.49138200       0.32352500      -0.03404400
O        4.79398100      11.37579800      20.28600300      -0.26049400       0.73136900      -0.56356800
O       12.44175600       3.79877800      13.28993200      -0.23180200       1.03840500       0.72951300
O        7.72615900       7.26040300      11.10252200       0.55667000       0.97518500       1.06484100
O       12.80363700       1.19835200      18.17140200      -0.57282200       0.78565000       0.91174600
O        3.43951800       4.54371300      18.30150300      -0.09250300       1.27476900      -0.13447300
O        2.57954700       1.67514900      19.67757300      -0.55909100      -0.06030200      -0.41161300
O       14.50079000      14.48983400      20.14900500       0.87252600       0.46558200       4.89746500
O        4.94094500      14.20390500      20.95321800       1.97027900       0.61421900       0.05638300
O       12.63434600      13.08128800       7.33038000       0.12945700       0.38747200      -0.24507700
O        3.38729500       8.78713600      21.01507300      -0.97360500      -2.30094600       0.66358700
O        7.19898800       3.80221200      19.97262400      -0.26818700      -0.28684600      -0.97579500
O        8.54781500       9.35726300      16.62417700       2.19674100       1.06689000      -0.40395800
O        1.00297700       6.80722700      18.26144300      -0.68177000       1.84697500       2.01779900
O        4.80404300      11.33331600      15.30729600      -0.84352100       0.27590600      -2.08132400
O        9.75399000       7.28841000      20.28849000       0.40705800      -0.43678100       0.41999900
O        0.42386700      11.38599100      20.27261000       0.67330400      -1.48487100       0.29642600
O        2.20046600       2.64635400       5.97650200      -0.88517000       1.10128300      -0.04761200
O        7.38129900       8.29751400      18.82782700       0.20342000       0.26174200       1.24789700
O        0.25986800       4.80063500      15.16199900      -0.00546800       0.38452200      -0.17765900
O        1.28512200       8.42631900      14.68523800      -0.84213400       1.07023700       0.71085000
O        4.70976100      14.31092800      17.53727400       0.55139600       0.42739100      -0.52676300